# vtk DataFile Version 2.0
ANSYS Mechanical to vtk unstructured grid
ASCII

DATASET UNSTRUCTURED_GRID
POINTS 312 float
      8.00000000e-02       5.00000000e-01       0.00000000e+00
      6.00000000e-02       5.00000000e-01       0.00000000e+00
      4.00000000e-02       5.00000000e-01       0.00000000e+00
      2.00000000e-02       5.00000000e-01       0.00000000e+00
      0.00000000e+00       5.00000000e-01       0.00000000e+00
      0.00000000e+00       5.00000000e-01       1.00000000e-02
      2.00000000e-02       5.00000000e-01       1.00000000e-02
      4.00000000e-02       5.00000000e-01       1.00000000e-02
      6.00000000e-02       5.00000000e-01       1.00000000e-02
      8.00000000e-02       5.00000000e-01       1.00000000e-02
      1.00000000e-01       5.00000000e-01       1.00000000e-02
      1.00000000e-01       5.00000000e-01       0.00000000e+00
      1.00000000e-01       4.80000000e-01       0.00000000e+00
      1.00000000e-01       4.60000000e-01       0.00000000e+00
      1.00000000e-01       4.40000000e-01       0.00000000e+00
      1.00000000e-01       4.20000000e-01       0.00000000e+00
      1.00000000e-01       4.00000000e-01       0.00000000e+00
      1.00000000e-01       3.80000000e-01       0.00000000e+00
      1.00000000e-01       3.60000000e-01       0.00000000e+00
      1.00000000e-01       3.40000000e-01       0.00000000e+00
      1.00000000e-01       3.20000000e-01       0.00000000e+00
      1.00000000e-01       3.00000000e-01       0.00000000e+00
      1.00000000e-01       2.80000000e-01       0.00000000e+00
      1.00000000e-01       2.60000000e-01       0.00000000e+00
      1.00000000e-01       2.40000000e-01       0.00000000e+00
      1.00000000e-01       2.20000000e-01       0.00000000e+00
      1.00000000e-01       2.00000000e-01       0.00000000e+00
      1.00000000e-01       1.80000000e-01       0.00000000e+00
      1.00000000e-01       1.60000000e-01       0.00000000e+00
      1.00000000e-01       1.40000000e-01       0.00000000e+00
      1.00000000e-01       1.20000000e-01       0.00000000e+00
      1.00000000e-01       1.00000000e-01       0.00000000e+00
      1.00000000e-01       8.00000000e-02       0.00000000e+00
      1.00000000e-01       6.00000000e-02       0.00000000e+00
      1.00000000e-01       4.00000000e-02       0.00000000e+00
      1.00000000e-01       2.00000000e-02       0.00000000e+00
      1.00000000e-01       0.00000000e+00       0.00000000e+00
      1.00000000e-01       4.80000000e-01       1.00000000e-02
      1.00000000e-01       4.60000000e-01       1.00000000e-02
      1.00000000e-01       4.40000000e-01       1.00000000e-02
      1.00000000e-01       4.20000000e-01       1.00000000e-02
      1.00000000e-01       4.00000000e-01       1.00000000e-02
      1.00000000e-01       3.80000000e-01       1.00000000e-02
      1.00000000e-01       3.60000000e-01       1.00000000e-02
      1.00000000e-01       3.40000000e-01       1.00000000e-02
      1.00000000e-01       3.20000000e-01       1.00000000e-02
      1.00000000e-01       3.00000000e-01       1.00000000e-02
      1.00000000e-01       2.80000000e-01       1.00000000e-02
      1.00000000e-01       2.60000000e-01       1.00000000e-02
      1.00000000e-01       2.40000000e-01       1.00000000e-02
      1.00000000e-01       2.20000000e-01       1.00000000e-02
      1.00000000e-01       2.00000000e-01       1.00000000e-02
      1.00000000e-01       1.80000000e-01       1.00000000e-02
      1.00000000e-01       1.60000000e-01       1.00000000e-02
      1.00000000e-01       1.40000000e-01       1.00000000e-02
      1.00000000e-01       1.20000000e-01       1.00000000e-02
      1.00000000e-01       1.00000000e-01       1.00000000e-02
      1.00000000e-01       8.00000000e-02       1.00000000e-02
      1.00000000e-01       6.00000000e-02       1.00000000e-02
      1.00000000e-01       4.00000000e-02       1.00000000e-02
      1.00000000e-01       2.00000000e-02       1.00000000e-02
      1.00000000e-01       0.00000000e+00       1.00000000e-02
      2.00000000e-02       4.80000000e-01       1.00000000e-02
      4.00000000e-02       4.80000000e-01       1.00000000e-02
      6.00000000e-02       4.80000000e-01       1.00000000e-02
      8.00000000e-02       4.80000000e-01       1.00000000e-02
      2.00000000e-02       4.60000000e-01       1.00000000e-02
      4.00000000e-02       4.60000000e-01       1.00000000e-02
      6.00000000e-02       4.60000000e-01       1.00000000e-02
      8.00000000e-02       4.60000000e-01       1.00000000e-02
      2.00000000e-02       4.40000000e-01       1.00000000e-02
      4.00000000e-02       4.40000000e-01       1.00000000e-02
      6.00000000e-02       4.40000000e-01       1.00000000e-02
      8.00000000e-02       4.40000000e-01       1.00000000e-02
      2.00000000e-02       4.20000000e-01       1.00000000e-02
      4.00000000e-02       4.20000000e-01       1.00000000e-02
      6.00000000e-02       4.20000000e-01       1.00000000e-02
      8.00000000e-02       4.20000000e-01       1.00000000e-02
      2.00000000e-02       4.00000000e-01       1.00000000e-02
      4.00000000e-02       4.00000000e-01       1.00000000e-02
      6.00000000e-02       4.00000000e-01       1.00000000e-02
      8.00000000e-02       4.00000000e-01       1.00000000e-02
      2.00000000e-02       3.80000000e-01       1.00000000e-02
      4.00000000e-02       3.80000000e-01       1.00000000e-02
      6.00000000e-02       3.80000000e-01       1.00000000e-02
      8.00000000e-02       3.80000000e-01       1.00000000e-02
      2.00000000e-02       3.60000000e-01       1.00000000e-02
      4.00000000e-02       3.60000000e-01       1.00000000e-02
      6.00000000e-02       3.60000000e-01       1.00000000e-02
      8.00000000e-02       3.60000000e-01       1.00000000e-02
      2.00000000e-02       3.40000000e-01       1.00000000e-02
      4.00000000e-02       3.40000000e-01       1.00000000e-02
      6.00000000e-02       3.40000000e-01       1.00000000e-02
      8.00000000e-02       3.40000000e-01       1.00000000e-02
      2.00000000e-02       3.20000000e-01       1.00000000e-02
      4.00000000e-02       3.20000000e-01       1.00000000e-02
      6.00000000e-02       3.20000000e-01       1.00000000e-02
      8.00000000e-02       3.20000000e-01       1.00000000e-02
      2.00000000e-02       3.00000000e-01       1.00000000e-02
      4.00000000e-02       3.00000000e-01       1.00000000e-02
      6.00000000e-02       3.00000000e-01       1.00000000e-02
      8.00000000e-02       3.00000000e-01       1.00000000e-02
      2.00000000e-02       2.80000000e-01       1.00000000e-02
      4.00000000e-02       2.80000000e-01       1.00000000e-02
      6.00000000e-02       2.80000000e-01       1.00000000e-02
      8.00000000e-02       2.80000000e-01       1.00000000e-02
      2.00000000e-02       2.60000000e-01       1.00000000e-02
      4.00000000e-02       2.60000000e-01       1.00000000e-02
      6.00000000e-02       2.60000000e-01       1.00000000e-02
      8.00000000e-02       2.60000000e-01       1.00000000e-02
      2.00000000e-02       2.40000000e-01       1.00000000e-02
      4.00000000e-02       2.40000000e-01       1.00000000e-02
      6.00000000e-02       2.40000000e-01       1.00000000e-02
      8.00000000e-02       2.40000000e-01       1.00000000e-02
      2.00000000e-02       2.20000000e-01       1.00000000e-02
      4.00000000e-02       2.20000000e-01       1.00000000e-02
      6.00000000e-02       2.20000000e-01       1.00000000e-02
      8.00000000e-02       2.20000000e-01       1.00000000e-02
      2.00000000e-02       2.00000000e-01       1.00000000e-02
      4.00000000e-02       2.00000000e-01       1.00000000e-02
      6.00000000e-02       2.00000000e-01       1.00000000e-02
      8.00000000e-02       2.00000000e-01       1.00000000e-02
      2.00000000e-02       1.80000000e-01       1.00000000e-02
      4.00000000e-02       1.80000000e-01       1.00000000e-02
      6.00000000e-02       1.80000000e-01       1.00000000e-02
      8.00000000e-02       1.80000000e-01       1.00000000e-02
      2.00000000e-02       1.60000000e-01       1.00000000e-02
      4.00000000e-02       1.60000000e-01       1.00000000e-02
      6.00000000e-02       1.60000000e-01       1.00000000e-02
      8.00000000e-02       1.60000000e-01       1.00000000e-02
      2.00000000e-02       1.40000000e-01       1.00000000e-02
      4.00000000e-02       1.40000000e-01       1.00000000e-02
      6.00000000e-02       1.40000000e-01       1.00000000e-02
      8.00000000e-02       1.40000000e-01       1.00000000e-02
      2.00000000e-02       1.20000000e-01       1.00000000e-02
      4.00000000e-02       1.20000000e-01       1.00000000e-02
      6.00000000e-02       1.20000000e-01       1.00000000e-02
      8.00000000e-02       1.20000000e-01       1.00000000e-02
      2.00000000e-02       1.00000000e-01       1.00000000e-02
      4.00000000e-02       1.00000000e-01       1.00000000e-02
      6.00000000e-02       1.00000000e-01       1.00000000e-02
      8.00000000e-02       1.00000000e-01       1.00000000e-02
      2.00000000e-02       8.00000000e-02       1.00000000e-02
      4.00000000e-02       8.00000000e-02       1.00000000e-02
      6.00000000e-02       8.00000000e-02       1.00000000e-02
      8.00000000e-02       8.00000000e-02       1.00000000e-02
      2.00000000e-02       6.00000000e-02       1.00000000e-02
      4.00000000e-02       6.00000000e-02       1.00000000e-02
      6.00000000e-02       6.00000000e-02       1.00000000e-02
      8.00000000e-02       6.00000000e-02       1.00000000e-02
      2.00000000e-02       4.00000000e-02       1.00000000e-02
      4.00000000e-02       4.00000000e-02       1.00000000e-02
      6.00000000e-02       4.00000000e-02       1.00000000e-02
      8.00000000e-02       4.00000000e-02       1.00000000e-02
      2.00000000e-02       2.00000000e-02       1.00000000e-02
      4.00000000e-02       2.00000000e-02       1.00000000e-02
[...]
POINT_DATA 312
VECTORS Displacement_Time_0.45 float
      9.80976665e-07      -1.32410796e-02      -1.00918941e-01
      3.67593088e-07      -1.32417157e-02      -1.00921534e-01
     -3.67593088e-07      -1.32417157e-02      -1.00921534e-01
     -9.80976665e-07      -1.32410796e-02      -1.00918941e-01
     -1.24709550e-06      -1.32400095e-02      -1.00914642e-01
      1.22716926e-06      -1.05368979e-02      -1.01286918e-01
      9.67386313e-07      -1.05382195e-02      -1.01291150e-01
      3.62569267e-07      -1.05390223e-02      -1.01293691e-01
     -3.62569267e-07      -1.05390223e-02      -1.01293691e-01
     -9.67386313e-07      -1.05382195e-02      -1.01291150e-01
     -1.22716926e-06      -1.05368979e-02      -1.01286918e-01
      1.24709550e-06      -1.32400095e-02      -1.00914642e-01
      1.49114896e-06      -1.24953864e-02      -9.55085754e-02
      2.10495546e-06      -1.17506329e-02      -9.01036263e-02
      3.11239523e-06      -1.10059576e-02      -8.47027898e-02
      4.52493350e-06      -1.02622593e-02      -7.93113038e-02
      6.33915761e-06      -9.52102058e-03      -7.39364326e-02
      8.55303460e-06      -8.78427830e-03      -6.85875118e-02
      1.11632071e-05      -8.05460103e-03      -6.32759333e-02
      1.41654536e-05      -7.33505422e-03      -5.80151491e-02
      1.75541882e-05      -6.62915688e-03      -5.28206788e-02
      2.13219228e-05      -5.94082056e-03      -4.77101542e-02
      2.54583756e-05      -5.27427113e-03      -4.27033268e-02
      2.99490421e-05      -4.63395100e-03      -3.78221013e-02
      3.47727728e-05      -4.02439805e-03      -3.30905728e-02
      3.98975899e-05      -3.45009845e-03      -2.85350755e-02
      4.52735367e-05      -2.91531160e-03      -2.41842140e-02
      5.08202720e-05      -2.42386106e-03      -2.00689435e-02
      5.64060610e-05      -1.97888631e-03      -1.62226316e-02
      6.18127087e-05      -1.58255105e-03      -1.26811732e-02
      6.66771739e-05      -1.23569265e-03      -9.48314648e-03
      7.03985861e-05      -9.37406498e-04      -6.67007174e-03
      7.19426898e-05      -6.84530532e-04      -4.28684335e-03
      6.97276264e-05      -4.71198000e-04      -2.38225027e-03
      6.01110842e-05      -2.88036856e-04      -1.00910838e-03
      3.94779090e-05      -1.25483813e-04      -2.18497022e-04
      0.00000000e+00       0.00000000e+00       0.00000000e+00
     -1.47208107e-06      -9.79251508e-03      -9.58807915e-02
     -2.08512643e-06      -9.04882513e-03      -9.04755369e-02
     -3.09156189e-06      -8.30722041e-03      -8.50738436e-02
     -4.50480866e-06      -7.56965205e-03      -7.96806440e-02
     -6.32367619e-06      -6.83862995e-03      -7.43029267e-02
     -8.54887185e-06      -6.11721957e-03      -6.89497665e-02
     -1.11803593e-05      -5.40902279e-03      -6.36322871e-02
     -1.42178333e-05      -4.71814768e-03      -5.83636984e-02
     -1.76601934e-05      -4.04916517e-03      -5.31593263e-02
     -2.15049695e-05      -3.40705249e-03      -4.80366200e-02
     -2.57473985e-05      -2.79711629e-03      -4.30151969e-02
     -3.03789511e-05      -2.22489936e-03      -3.81168872e-02
     -3.53849318e-05      -1.69606053e-03      -3.33657749e-02
     -4.07404659e-05      -1.21623219e-03      -2.87882555e-02
     -4.64036748e-05      -7.90846592e-04      -2.44131014e-02
     -5.23037343e-05      -4.24931786e-04      -2.02715360e-02
     -5.83191686e-05      -1.22871381e-04      -1.63973235e-02
     -6.42378945e-05       1.11874542e-04      -1.28268972e-02
     -6.96810748e-05       2.77090963e-04      -9.59952921e-03
     -7.39700190e-05       3.72179551e-04      -6.75760536e-03
     -7.58498427e-05       3.98557953e-04      -4.34709014e-03
     -7.33345514e-05       3.60296515e-04      -2.41811434e-03
     -6.22964071e-05       2.64633418e-04      -1.02515228e-03
     -3.97420990e-05       1.27239851e-04      -2.21839044e-04
      0.00000000e+00       0.00000000e+00       0.00000000e+00
      1.13627289e-06      -9.79421474e-03      -9.58858356e-02
      4.25452271e-07      -9.79525968e-03      -9.58888605e-02
     -4.25452271e-07      -9.79525968e-03      -9.58888605e-02
     -1.13627289e-06      -9.79421474e-03      -9.58858356e-02
      1.51403697e-06      -9.05128941e-03      -9.04824063e-02
      5.53234997e-07      -9.05275159e-03      -9.04863402e-02
     -5.53234997e-07      -9.05275159e-03      -9.04863402e-02
     -1.51403697e-06      -9.05128941e-03      -9.04824063e-02
      2.11549855e-06      -8.31080135e-03      -8.50837529e-02
      7.52891708e-07      -8.31286050e-03      -8.50891918e-02
     -7.52891708e-07      -8.31286050e-03      -8.50891918e-02
     -2.11549855e-06      -8.31080135e-03      -8.50837529e-02
      2.95864197e-06      -7.57468864e-03      -7.96948299e-02
      1.03289074e-06      -7.57751334e-03      -7.97023997e-02
     -1.03289074e-06      -7.57751334e-03      -7.97023997e-02
     -2.95864197e-06      -7.57468864e-03      -7.96948299e-02
      4.04229877e-06      -6.84545096e-03      -7.43226483e-02
      1.39259623e-06      -6.84920419e-03      -7.43329749e-02
     -1.39259623e-06      -6.84920419e-03      -7.43329749e-02
     -4.04229877e-06      -6.84545096e-03      -7.43226483e-02
      5.36555308e-06      -6.12613885e-03      -6.89762682e-02
      1.83140719e-06      -6.13097288e-03      -6.89899698e-02
     -1.83140719e-06      -6.13097288e-03      -6.89899698e-02
     -5.36555308e-06      -6.12613885e-03      -6.89762682e-02
      6.92667072e-06      -5.42032998e-03      -6.36668205e-02
      2.34843787e-06      -5.42638591e-03      -6.36845306e-02
     -2.34843787e-06      -5.42638591e-03      -6.36845306e-02
     -6.92667072e-06      -5.42032998e-03      -6.36668205e-02
      8.72336932e-06      -4.73209983e-03      -5.84075190e-02
      2.94255142e-06      -4.73950198e-03      -5.84298521e-02
     -2.94255142e-06      -4.73950198e-03      -5.84298521e-02
     -8.72336932e-06      -4.73209983e-03      -5.84075190e-02
      1.07524447e-05      -4.06597788e-03      -5.32136746e-02
      3.61221601e-06      -4.07482684e-03      -5.32412566e-02
     -3.61221601e-06      -4.07482684e-03      -5.32412566e-02
     -1.07524447e-05      -4.06597788e-03      -5.32136746e-02
      1.30093194e-05      -3.42688500e-03      -4.81027402e-02
      4.35533502e-06      -3.43725388e-03      -4.81361859e-02
     -4.35533502e-06      -3.43725388e-03      -4.81361859e-02
     -1.30093194e-05      -3.42688500e-03      -4.81027402e-02
      1.54873287e-05      -2.82005896e-03      -4.30943184e-02
      5.16897444e-06      -2.83198338e-03      -4.31342348e-02
     -5.16897444e-06      -2.83198338e-03      -4.31342348e-02
     -1.54873287e-05      -2.82005896e-03      -4.30943184e-02
      1.81765790e-05      -2.25095474e-03      -3.82102169e-02
      6.04893512e-06      -2.26442446e-03      -3.82571891e-02
     -6.04893512e-06      -2.26442446e-03      -3.82571891e-02
     -1.81765790e-05      -2.25095474e-03      -3.82102169e-02
      2.10621038e-05      -1.72512338e-03      -3.34744640e-02
      6.98905842e-06      -1.74007076e-03      -3.35290581e-02
     -6.98905842e-06      -1.74007076e-03      -3.35290581e-02
     -2.10621038e-05      -1.72512338e-03      -3.34744640e-02
      2.41207963e-05      -1.24806305e-03      -2.89133843e-02
      7.98008659e-06      -1.26434909e-03      -2.89760958e-02
     -7.98008659e-06      -1.26434909e-03      -2.89760958e-02
     -2.41207963e-05      -1.24806305e-03      -2.89133843e-02
      2.73162259e-05      -8.25040217e-04      -2.45555956e-02
      9.00774285e-06      -8.42437032e-04      -2.46268343e-02
     -9.00774285e-06      -8.42437032e-04      -2.46268343e-02
     -2.73162259e-05      -8.25040217e-04      -2.45555956e-02
      3.05895956e-05      -4.60876588e-04      -2.04320662e-02
      1.00493935e-05      -4.79044189e-04      -2.05120742e-02
     -1.00493935e-05      -4.79044189e-04      -2.05120742e-02
     -3.05895956e-05      -4.60876588e-04      -2.04320662e-02
      3.38433711e-05      -1.59696996e-04      -1.65761150e-02
      1.10679475e-05      -1.78153598e-04      -1.66648515e-02
     -1.10679475e-05      -1.78153598e-04      -1.66648515e-02
     -3.38433711e-05      -1.59696996e-04      -1.65761150e-02
      3.69107074e-05       7.53647837e-05      -1.30233942e-02
      1.20005134e-05       5.72827485e-05      -1.31203244e-02
     -1.20005134e-05       5.72827485e-05      -1.31203244e-02
     -3.69107074e-05       7.53647837e-05      -1.30233942e-02
      3.94966410e-05       2.42506881e-04      -9.81181487e-03
      1.27355697e-05       2.25700511e-04      -9.91554465e-03
     -1.27355697e-05       2.25700511e-04      -9.91554465e-03
     -3.94966410e-05       2.42506881e-04      -9.81181487e-03
      4.10723660e-05       3.41650913e-04      -6.98138494e-03
      1.30739545e-05       3.27340094e-04      -7.08901463e-03
     -1.30739545e-05       3.27340094e-04      -7.08901463e-03
     -4.10723660e-05       3.41650913e-04      -6.98138494e-03
      4.06666186e-05       3.74897383e-04      -4.57388582e-03
      1.26453015e-05       3.64729756e-04      -4.67990572e-03
     -1.26453015e-05       3.64729756e-04      -4.67990572e-03
     -4.06666186e-05       3.74897383e-04      -4.57388582e-03
      3.66638487e-05       3.46947345e-04      -2.63232156e-03
      1.08054792e-05       3.43241030e-04      -2.72669061e-03
     -1.08054792e-05       3.43241030e-04      -2.72669061e-03
     -3.66638487e-05       3.46947345e-04      -2.63232156e-03
      2.63054189e-05       2.66065384e-04      -1.19984022e-03
      6.64963545e-06       2.71273340e-04      -1.26540114e-03
     -6.64963545e-06       2.71273340e-04      -1.26540114e-03
     -2.63054189e-05       2.66065384e-04      -1.19984022e-03
      1.05174695e-05       1.45881859e-04      -3.13549157e-04
      1.35653431e-06       1.57185365e-04      -3.33309610e-04
     -1.35653431e-06       1.57185365e-04      -3.33309610e-04
     -1.05174695e-05       1.45881859e-04      -3.13549157e-04
      0.00000000e+00       0.00000000e+00       0.00000000e+00
      0.00000000e+00       0.00000000e+00       0.00000000e+00
      0.00000000e+00       0.00000000e+00       0.00000000e+00
      0.00000000e+00       0.00000000e+00       0.00000000e+00
      1.47208107e-06      -9.79251508e-03      -9.58807915e-02
      2.08512643e-06      -9.04882513e-03      -9.04755369e-02
      3.09156189e-06      -8.30722041e-03      -8.50738436e-02
      4.50480866e-06      -7.56965205e-03      -7.96806440e-02
      6.32367619e-06      -6.83862995e-03      -7.43029267e-02
      8.54887185e-06      -6.11721957e-03      -6.89497665e-02
      1.11803593e-05      -5.40902279e-03      -6.36322871e-02
      1.42178333e-05      -4.71814768e-03      -5.83636984e-02
      1.76601934e-05      -4.04916517e-03      -5.31593263e-02
      2.15049695e-05      -3.40705249e-03      -4.80366200e-02
      2.57473985e-05      -2.79711629e-03      -4.30151969e-02
      3.03789511e-05      -2.22489936e-03      -3.81168872e-02
      3.53849318e-05      -1.69606053e-03      -3.33657749e-02
      4.07404659e-05      -1.21623219e-03      -2.87882555e-02
      4.64036748e-05      -7.90846592e-04      -2.44131014e-02
      5.23037343e-05      -4.24931786e-04      -2.02715360e-02
      5.83191686e-05      -1.22871381e-04      -1.63973235e-02
      6.42378945e-05       1.11874542e-04      -1.28268972e-02
      6.96810748e-05       2.77090963e-04      -9.59952921e-03
      7.39700190e-05       3.72179551e-04      -6.75760536e-03
      7.58498427e-05       3.98557953e-04      -4.34709014e-03
      7.33345514e-05       3.60296515e-04      -2.41811434e-03
      6.22964071e-05       2.64633418e-04      -1.02515228e-03
      3.97420990e-05       1.27239851e-04      -2.21839044e-04
      0.00000000e+00       0.00000000e+00       0.00000000e+00
     -1.49114896e-06      -1.24953864e-02      -9.55085754e-02
     -2.10495546e-06      -1.17506329e-02      -9.01036263e-02
     -3.11239523e-06      -1.10059576e-02      -8.47027898e-02
     -4.52493350e-06      -1.02622593e-02      -7.93113038e-02
     -6.33915761e-06      -9.52102058e-03      -7.39364326e-02
     -8.55303460e-06      -8.78427830e-03      -6.85875118e-02
     -1.11632071e-05      -8.05460103e-03      -6.32759333e-02
     -1.41654536e-05      -7.33505422e-03      -5.80151491e-02
     -1.75541882e-05      -6.62915688e-03      -5.28206788e-02
     -2.13219228e-05      -5.94082056e-03      -4.77101542e-02
     -2.54583756e-05      -5.27427113e-03      -4.27033268e-02
     -2.99490421e-05      -4.63395100e-03      -3.78221013e-02
     -3.47727728e-05      -4.02439805e-03      -3.30905728e-02
     -3.98975899e-05      -3.45009845e-03      -2.85350755e-02
     -4.52735367e-05      -2.91531160e-03      -2.41842140e-02
     -5.08202720e-05      -2.42386106e-03      -2.00689435e-02
     -5.64060610e-05      -1.97888631e-03      -1.62226316e-02
     -6.18127087e-05      -1.58255105e-03      -1.26811732e-02
     -6.66771739e-05      -1.23569265e-03      -9.48314648e-03
     -7.03985861e-05      -9.37406498e-04      -6.67007174e-03
     -7.19426898e-05      -6.84530532e-04      -4.28684335e-03
     -6.97276264e-05      -4.71198000e-04      -2.38225027e-03
     -6.01110842e-05      -2.88036856e-04      -1.00910838e-03
     -3.94779090e-05      -1.25483813e-04      -2.18497022e-04
      0.00000000e+00       0.00000000e+00       0.00000000e+00
     -1.15393086e-05      -1.51149710e-04      -3.09852534e-04
     -1.86890600e-06      -1.65349265e-04      -3.29131610e-04
      1.86890600e-06      -1.65349265e-04      -3.29131610e-04
      1.15393086e-05      -1.51149710e-04      -3.09852534e-04
     -2.67619434e-05      -3.11356009e-04      -1.18354394e-03
     -6.96935240e-06      -3.26224341e-04      -1.24819495e-03
      6.96935240e-06      -3.26224341e-04      -1.24819495e-03
      2.67619434e-05      -3.11356009e-04      -1.18354394e-03
     -3.67947105e-05      -4.94764012e-04      -2.59707985e-03
     -1.11075260e-05      -5.08003577e-04      -2.69115483e-03
      1.11075260e-05      -5.08003577e-04      -2.69115483e-03
      3.67947105e-05      -4.94764012e-04      -2.59707985e-03
     -4.08466185e-05      -7.10234686e-04      -4.51491820e-03
     -1.30469234e-05      -7.23166333e-04      -4.62124962e-03
      1.30469234e-05      -7.23166333e-04      -4.62124962e-03
      4.08466185e-05      -7.10234686e-04      -4.51491820e-03
     -4.14442584e-05      -9.65263578e-04      -6.89561293e-03
     -1.35684058e-05      -9.78617230e-04      -7.00399606e-03
      1.35684058e-05      -9.78617230e-04      -7.00399606e-03
      4.14442584e-05      -9.65263578e-04      -6.89561293e-03
     -4.00227982e-05      -1.26511999e-03      -9.69746336e-03
     -1.32750083e-05      -1.27895060e-03      -9.80222877e-03
      1.32750083e-05      -1.27895060e-03      -9.80222877e-03
      4.00227982e-05      -1.26511999e-03      -9.69746336e-03
     -3.75028721e-05      -1.61266711e-03      -1.28798215e-02
     -1.25300894e-05      -1.62674335e-03      -1.29779465e-02
      1.25300894e-05      -1.62674335e-03      -1.29779465e-02
      3.75028721e-05      -1.61266711e-03      -1.28798215e-02
     -3.44264045e-05      -2.00879807e-03      -1.64035950e-02
     -1.15504245e-05      -2.02278420e-03      -1.64935999e-02
      1.15504245e-05      -2.02278420e-03      -1.64935999e-02
      3.44264045e-05      -2.00879807e-03      -1.64035950e-02
     -3.11192234e-05      -2.45278352e-03      -2.02316027e-02
     -1.04665087e-05      -2.46634101e-03      -2.03128979e-02
      1.04665087e-05      -2.46634101e-03      -2.03128979e-02
      3.11192234e-05      -2.45278352e-03      -2.02316027e-02
     -2.77737563e-05      -2.94261426e-03      -2.43287552e-02
     -9.35531261e-06      -2.95544951e-03      -2.44012605e-02
      9.35531261e-06      -2.95544951e-03      -2.44012605e-02
      2.77737563e-05      -2.94261426e-03      -2.43287552e-02
     -2.45034244e-05      -3.47531075e-03      -2.86621451e-02
     -8.26195537e-06      -3.48719466e-03      -2.87260786e-02
      8.26195537e-06      -3.48719466e-03      -2.87260786e-02
      2.45034244e-05      -3.47531075e-03      -2.86621451e-02
     -2.13750336e-05      -4.04719962e-03      -3.32010835e-02
     -7.21279639e-06      -4.05797036e-03      -3.32568362e-02
      7.21279639e-06      -4.05797036e-03      -3.32568362e-02
      2.13750336e-05      -4.04719962e-03      -3.32010835e-02
     -1.84282344e-05      -4.65415418e-03      -3.79171148e-02
     -6.22327389e-06      -4.66371374e-03      -3.79651822e-02
      6.22327389e-06      -4.66371374e-03      -3.79651822e-02
      1.84282344e-05      -4.65415418e-03      -3.79171148e-02
     -1.56868646e-05      -5.29180327e-03      -4.27840017e-02
     -5.30249054e-06      -5.30010881e-03      -4.28249277e-02
      5.30249054e-06      -5.30010881e-03      -4.28249277e-02
      1.56868646e-05      -5.29180327e-03      -4.27840017e-02
     -1.31654861e-05      -5.95570449e-03      -4.77776900e-02
     -4.45585556e-06      -5.96276205e-03      -4.78120595e-02
      4.45585556e-06      -5.96276205e-03      -4.78120595e-02
      1.31654861e-05      -5.95570449e-03      -4.77776900e-02
     -1.08731338e-05      -6.64149690e-03      -5.28763011e-02
     -3.68659494e-06      -6.64735166e-03      -5.29047213e-02
      3.68659494e-06      -6.64735166e-03      -5.29047213e-02
      1.08731338e-05      -6.64149690e-03      -5.28763011e-02
     -8.81548112e-06      -7.34501844e-03      -5.80601022e-02
     -2.99662406e-06      -7.34975049e-03      -5.80831841e-02
      2.99662406e-06      -7.34975049e-03      -5.80831841e-02
      8.81548112e-06      -7.34501844e-03      -5.80601022e-02
     -6.99611428e-06      -8.06241110e-03      -6.33114651e-02
     -2.38705934e-06      -8.06612521e-03      -6.33298308e-02
      2.38705934e-06      -8.06612521e-03      -6.33298308e-02
      6.99611428e-06      -8.06241110e-03      -6.33114651e-02
     -5.41731288e-06      -8.79019592e-03      -6.86148703e-02
     -1.85853037e-06      -8.79301969e-03      -6.86291382e-02
      1.85853037e-06      -8.79301969e-03      -6.86291382e-02
      5.41731288e-06      -8.79019592e-03      -6.86148703e-02
     -4.08052119e-06      -9.52533819e-03      -7.39568621e-02
     -1.41136900e-06      -9.52741411e-03      -7.39676580e-02
      1.41136900e-06      -9.52741411e-03      -7.39676580e-02
      4.08052119e-06      -9.52533819e-03      -7.39568621e-02
     -2.98673967e-06      -1.02652926e-02      -7.93260559e-02
     -1.04576486e-06      -1.02667762e-02      -7.93339983e-02
      1.04576486e-06      -1.02667762e-02      -7.93339983e-02
      2.98673967e-06      -1.02652926e-02      -7.93260559e-02
     -2.13628118e-06      -1.10080373e-02      -8.47131237e-02
     -7.61744786e-07      -1.10090915e-02      -8.47188458e-02
      7.61744786e-07      -1.10090915e-02      -8.47188458e-02
      2.13628118e-06      -1.10080373e-02      -8.47131237e-02
     -1.52990890e-06      -1.17520969e-02      -9.01107714e-02
     -5.59530577e-07      -1.17528886e-02      -9.01148990e-02
      5.59530577e-07      -1.17528886e-02      -9.01148990e-02
      1.52990890e-06      -1.17520969e-02      -9.01107714e-02
     -1.14956379e-06      -1.24965608e-02      -9.55137759e-02
     -4.30364196e-07      -1.24972370e-02      -9.55168977e-02
      4.30364196e-07      -1.24972370e-02      -9.55168977e-02
      1.14956379e-06      -1.24965608e-02      -9.55137759e-02
      0.00000000e+00       0.00000000e+00       0.00000000e+00
      0.00000000e+00       0.00000000e+00       0.00000000e+00
      0.00000000e+00       0.00000000e+00       0.00000000e+00
      0.00000000e+00       0.00000000e+00       0.00000000e+00
VECTORS Displacement_Time_0.725 float
      1.57642899e-06      -3.24814469e-02      -1.59248739e-01
      5.90907689e-07      -3.24831344e-02      -1.59252673e-01
     -5.90907689e-07      -3.24831344e-02      -1.59252673e-01
     -1.57642899e-06      -3.24814469e-02      -1.59248739e-01